<?xml version="1.0"?>
<VTKFile type="UnstructuredGrid" version="0.1" byte_order="BigEndian">
  <UnstructuredGrid>
    <Piece NumberOfPoints="211"  NumberOfCells="420">
      <PointData>
        <DataArray type="Int32" Name="NodeNumber" NumberOfComponents="1" format="ascii">
1 2 3 4 5 6 7 8 9 10 11 12 13 14 15 16 17 18 19 20 21 22 23 24 25 26 27 28 29 30 31 32 33 34 35 36 37 38 39 40 41 42 43 44 45 46 47 48 49 50 51 52 53 54 55 56 57 58 59 60 61 62 63 64 65 66 67 68 69 70 71 72 73 74 75 76 77 78 79 80 81 82 83 84 85 86 87 88 89 90 91 92 93 94 95 96 97 98 99 100 101 102 103 104 105 106 107 108 109 110 111 112 113 114 115 116 117 118 119 120 121 122 123 124 125 126 127 128 129 130 131 132 133 134 135 136 137 138 139 140 141 142 143 144 145 146 147 148 149 150 151 152 153 154 155 156 157 158 159 160 161 162 163 164 165 166 167 168 169 170 171 172 173 174 175 176 177 178 179 180 181 182 183 184 185 186 187 188 189 190 191 192 193 194 195 196 197 198 199 200 201 202 203 204 205 206 207 208 209 210 211 
        </DataArray>
      </PointData>
      <CellData>
        <DataArray type="Int32" Name="ElementNumber" NumberOfComponents="1" format="ascii">
1 2 3 4 5 6 7 8 9 10 11 12 13 14 15 16 17 18 19 20 21 22 23 24 25 26 27 28 29 30 31 32 33 34 35 36 37 38 39 40 41 42 43 44 45 46 47 48 49 50 51 52 53 54 55 56 57 58 59 60 61 62 63 64 65 66 67 68 69 70 71 72 73 74 75 76 77 78 79 80 81 82 83 84 85 86 87 88 89 90 91 92 93 94 95 96 97 98 99 100 101 102 103 104 105 106 107 108 109 110 111 112 113 114 115 116 117 118 119 120 121 122 123 124 125 126 127 128 129 130 131 132 133 134 135 136 137 138 139 140 141 142 143 144 145 146 147 148 149 150 151 152 153 154 155 156 157 158 159 160 161 162 163 164 165 166 167 168 169 170 171 172 173 174 175 176 177 178 179 180 181 182 183 184 185 186 187 188 189 190 191 192 193 194 195 196 197 198 199 200 201 202 203 204 205 206 207 208 209 210 211 212 213 214 215 216 217 218 219 220 221 222 223 224 225 226 227 228 229 230 231 232 233 234 235 236 237 238 239 240 241 242 243 244 245 246 247 248 249 250 251 252 253 254 255 256 257 258 259 260 261 262 263 264 265 266 267 268 269 270 271 272 273 274 275 276 277 278 279 280 281 282 283 284 285 286 287 288 289 290 291 292 293 294 295 296 297 298 299 300 301 302 303 304 305 306 307 308 309 310 311 312 313 314 315 316 317 318 319 320 321 322 323 324 325 326 327 328 329 330 331 332 333 334 335 336 337 338 339 340 341 342 343 344 345 346 347 348 349 350 351 352 353 354 355 356 357 358 359 360 361 362 363 364 365 366 367 368 369 370 371 372 373 374 375 376 377 378 379 380 381 382 383 384 385 386 387 388 389 390 391 392 393 394 395 396 397 398 399 400 401 402 403 404 405 406 407 408 409 410 411 412 413 414 415 416 417 418 419 420 
        </DataArray>
        <DataArray type="Int32" Name="GeometryIds" NumberOfComponents="1" format="ascii">
1 1 1 1 1 1 1 1 1 1 1 1 1 1 1 1 1 1 1 1 1 1 1 1 1 1 1 1 1 1 1 1 1 1 1 1 1 1 1 1 1 1 1 1 1 1 1 1 1 1 1 1 1 1 1 1 1 1 1 1 1 1 1 1 1 1 1 1 1 1 1 1 1 1 1 1 1 1 1 1 1 1 1 1 1 1 1 1 1 1 1 1 1 1 1 1 1 1 1 1 1 1 1 1 1 1 1 1 1 1 1 1 1 1 1 1 1 1 1 1 1 1 1 1 1 1 1 1 1 1 1 1 1 1 1 1 1 1 1 1 1 1 1 1 1 1 1 1 1 1 1 1 1 1 1 1 1 1 1 1 1 1 1 1 1 1 1 1 1 1 1 1 1 1 1 1 1 1 1 1 1 1 1 1 1 1 1 1 1 1 1 1 1 1 1 1 1 1 1 1 1 1 1 1 1 1 1 1 1 1 1 1 1 1 1 1 1 1 1 1 1 1 1 1 1 1 1 1 1 1 1 1 1 1 1 1 1 1 1 1 1 1 1 1 1 1 1 1 1 1 1 1 1 1 1 1 1 1 1 1 1 1 1 1 1 1 1 1 1 1 1 1 1 1 1 1 1 1 1 1 1 1 1 1 1 1 1 1 1 1 1 1 1 1 1 1 1 1 1 1 1 1 1 1 1 1 1 1 1 1 1 1 1 1 1 1 1 1 1 1 1 1 1 1 1 1 1 1 1 1 1 1 1 1 1 1 1 1 1 1 1 1 1 1 1 1 1 1 1 1 1 1 1 1 1 1 1 1 1 1 1 1 1 1 1 1 1 1 1 1 1 1 1 1 1 1 101 101 101 101 101 101 101 101 101 101 101 102 102 102 102 102 102 102 102 102 102 102 103 103 103 103 103 103 103 103 103 103 103 104 104 104 104 104 104 104 104 104 104 104 
        </DataArray>
      </CellData>
      <Points>
        <DataArray type="Float64" Name="ElementNumber" NumberOfComponents="3" format="ascii">
0.000000e+00 1.000000e+05 0.000000e+00 1.000000e+05 0.000000e+00 0.000000e+00 0.000000e+00 -1.000000e+05 0.000000e+00 -1.000000e+05 0.000000e+00 0.000000e+00 9.898214e+04 1.423148e+04 0.000000e+00 9.594930e+04 2.817326e+04 0.000000e+00 9.096320e+04 4.154150e+04 0.000000e+00 8.412535e+04 5.406408e+04 0.000000e+00 7.557496e+04 6.548607e+04 0.000000e+00 6.548607e+04 7.557496e+04 0.000000e+00 5.406408e+04 8.412535e+04 0.000000e+00 4.154150e+04 9.096320e+04 0.000000e+00 2.817326e+04 9.594930e+04 0.000000e+00 1.423148e+04 9.898214e+04 0.000000e+00 -1.423148e+04 9.898214e+04 0.000000e+00 -2.817326e+04 9.594930e+04 0.000000e+00 -4.154150e+04 9.096320e+04 0.000000e+00 -5.406408e+04 8.412535e+04 0.000000e+00 -6.548607e+04 7.557496e+04 0.000000e+00 -7.557496e+04 6.548607e+04 0.000000e+00 -8.412535e+04 5.406408e+04 0.000000e+00 -9.096320e+04 4.154150e+04 0.000000e+00 -9.594930e+04 2.817326e+04 0.000000e+00 -9.898214e+04 1.423148e+04 0.000000e+00 -9.898214e+04 -1.423148e+04 0.000000e+00 -9.594930e+04 -2.817326e+04 0.000000e+00 -9.096320e+04 -4.154150e+04 0.000000e+00 -8.412535e+04 -5.406408e+04 0.000000e+00 -7.557496e+04 -6.548607e+04 0.000000e+00 -6.548607e+04 -7.557496e+04 0.000000e+00 -5.406408e+04 -8.412535e+04 0.000000e+00 -4.154150e+04 -9.096320e+04 0.000000e+00 -2.817326e+04 -9.594930e+04 0.000000e+00 -1.423148e+04 -9.898214e+04 0.000000e+00 1.423148e+04 -9.898214e+04 0.000000e+00 2.817326e+04 -9.594930e+04 0.000000e+00 4.154150e+04 -9.096320e+04 0.000000e+00 5.406408e+04 -8.412535e+04 0.000000e+00 6.548607e+04 -7.557496e+04 0.000000e+00 7.557496e+04 -6.548607e+04 0.000000e+00 8.412535e+04 -5.406408e+04 0.000000e+00 9.096320e+04 -4.154150e+04 0.000000e+00 9.594930e+04 -2.817326e+04 0.000000e+00 9.898214e+04 -1.423148e+04 0.000000e+00 -8.429447e+04 1.790307e+04 0.000000e+00 8.647259e+04 -1.841633e+04 0.000000e+00 -2.097709e+04 -8.666166e+04 0.000000e+00 1.841942e+04 8.462244e+04 0.000000e+00 7.669940e+04 4.188104e+04 0.000000e+00 -4.212770e+04 7.686684e+04 0.000000e+00 4.126573e+04 -7.732626e+04 0.000000e+00 -7.676093e+04 -4.137070e+04 0.000000e+00 7.035795e+04 -5.420977e+04 0.000000e+00 5.236004e+04 6.991869e+04 0.000000e+00 -5.193752e+04 -7.051907e+04 0.000000e+00 -7.215826e+04 5.177443e+04 0.000000e+00 8.815745e+04 7.654024e+03 0.000000e+00 -6.234253e+03 8.716625e+04 0.000000e+00 6.775614e+03 -8.836185e+04 0.000000e+00 -8.898741e+04 -5.388813e+03 0.000000e+00 7.017118e+04 5.400241e+04 0.000000e+00 6.284857e+04 4.273671e+04 0.000000e+00 6.901798e+04 3.002599e+04 0.000000e+00 5.496177e+04 3.087555e+04 0.000000e+00 6.135126e+04 1.799201e+04 0.000000e+00 4.712961e+04 1.877497e+04 0.000000e+00 4.075851e+04 3.168387e+04 0.000000e+00 3.289493e+04 1.957709e+04 0.000000e+00 3.931290e+04 6.809086e+03 0.000000e+00 2.506795e+04 7.609168e+03 0.000000e+00 1.864329e+04 2.034771e+04 0.000000e+00 1.082140e+04 8.405787e+03 0.000000e+00 1.724626e+04 -4.332712e+03 0.000000e+00 3.000970e+03 -3.528301e+03 0.000000e+00 -3.423778e+03 9.210948e+03 0.000000e+00 -1.124415e+04 -2.722855e+03 0.000000e+00 -4.819443e+03 -1.546235e+04 0.000000e+00 -1.766887e+04 1.001657e+04 0.000000e+00 -2.548923e+04 -1.917161e+03 0.000000e+00 -9.848517e+03 2.195026e+04 0.000000e+00 -3.191394e+04 1.082230e+04 0.000000e+00 -3.973430e+04 -1.111405e+03 0.000000e+00 -3.330959e+04 -1.385088e+04 0.000000e+00 -4.755465e+04 -1.304511e+04 0.000000e+00 -4.112994e+04 -2.578459e+04 0.000000e+00 -4.615901e+04 1.162807e+04 0.000000e+00 -3.833865e+04 2.356177e+04 0.000000e+00 -5.258372e+04 2.436754e+04 0.000000e+00 -4.476337e+04 3.630124e+04 0.000000e+00 -2.688488e+04 -2.659036e+04 0.000000e+00 -3.470523e+04 -3.852407e+04 0.000000e+00 -2.046017e+04 -3.932984e+04 0.000000e+00 -2.828052e+04 -5.126354e+04 0.000000e+00 -1.403546e+04 -5.206932e+04 0.000000e+00 -3.051830e+04 3.549547e+04 0.000000e+00 -6.215102e+03 -4.013562e+04 0.000000e+00 2.096081e+02 -5.287509e+04 0.000000e+00 8.029963e+03 -4.094139e+04 0.000000e+00 1.445467e+04 -5.368087e+04 0.000000e+00 2.227503e+04 -4.174717e+04 0.000000e+00 -3.694301e+04 4.823494e+04 0.000000e+00 -2.269795e+04 4.742917e+04 0.000000e+00 -4.895030e+04 -3.771829e+04 0.000000e+00 -6.001614e+04 1.262948e+04 0.000000e+00 2.849491e+04 -5.435242e+04 0.000000e+00 3.648596e+04 -4.253057e+04 0.000000e+00 3.008969e+04 -2.980974e+04 0.000000e+00 4.433381e+04 -3.061489e+04 0.000000e+00 2.092319e+04 -6.607109e+04 0.000000e+00 4.262354e+04 -5.479301e+04 0.000000e+00 3.791369e+04 -1.787842e+04 0.000000e+00 5.215936e+04 -1.868459e+04 0.000000e+00 5.821312e+04 -3.118098e+04 0.000000e+00 -7.572083e+03 -6.412528e+04 0.000000e+00 -2.859604e+04 5.982354e+04 0.000000e+00 -1.478982e+04 5.930535e+04 0.000000e+00 -8.438252e+03 4.661380e+04 0.000000e+00 -6.154590e+02 5.854591e+04 0.000000e+00 5.793560e+03 4.581671e+04 0.000000e+00 1.385943e+04 5.797912e+04 0.000000e+00 2.010181e+04 4.506132e+04 0.000000e+00 2.873530e+04 5.783642e+04 0.000000e+00 -2.130230e+04 7.210234e+04 0.000000e+00 -6.931527e+04 2.504911e+04 0.000000e+00 -5.048519e+04 4.858011e+04 0.000000e+00 7.635914e+03 7.065564e+04 0.000000e+00 6.558026e+04 -1.983543e+04 0.000000e+00 5.984631e+04 -6.806550e+03 0.000000e+00 7.152698e+04 -3.193471e+04 0.000000e+00 7.437526e+04 -8.274212e+03 0.000000e+00 7.633146e+04 1.594266e+04 0.000000e+00 5.695819e+04 5.550016e+04 0.000000e+00 4.868968e+04 4.437146e+04 0.000000e+00 4.327289e+04 5.756491e+04 0.000000e+00 3.704346e+04 7.003666e+04 0.000000e+00 2.285265e+04 7.092169e+04 0.000000e+00 6.719094e+04 4.501653e+03 0.000000e+00 3.467006e+04 4.479840e+04 0.000000e+00 5.342785e+04 5.887517e+03 0.000000e+00 2.646217e+04 3.227244e+04 0.000000e+00 1.222820e+04 3.308775e+04 0.000000e+00 3.149126e+04 -5.135490e+03 0.000000e+00 9.425672e+03 -1.626783e+04 0.000000e+00 -6.902084e+03 7.402546e+04 0.000000e+00 -5.391471e+04 -2.730278e+02 0.000000e+00 -6.163864e+04 -1.233240e+04 0.000000e+00 5.018327e+04 -4.292925e+04 0.000000e+00 -5.860281e+04 3.654893e+04 0.000000e+00 -7.103141e+04 3.929771e+04 0.000000e+00 -6.730040e+04 1.364939e+03 0.000000e+00 -1.906452e+04 -1.465665e+04 0.000000e+00 6.929250e+03 -6.509728e+04 0.000000e+00 -5.534816e+04 -2.499432e+04 0.000000e+00 -6.941745e+04 -2.490007e+04 0.000000e+00 -6.315178e+04 -3.781547e+04 0.000000e+00 -5.677065e+04 -4.965199e+04 0.000000e+00 -4.249217e+04 -4.986690e+04 0.000000e+00 -3.816271e+04 -6.410411e+04 0.000000e+00 -2.216658e+04 -6.357305e+04 0.000000e+00 -2.857926e+04 -7.545938e+04 0.000000e+00 1.584938e+04 -2.900701e+04 0.000000e+00 -4.299497e+04 6.265648e+04 0.000000e+00 -6.010395e+04 6.051815e+04 0.000000e+00 -2.409359e+04 2.275601e+04 0.000000e+00 -1.263981e+04 -2.739612e+04 0.000000e+00 4.398737e+03 2.114773e+04 0.000000e+00 -1.627080e+04 3.468810e+04 0.000000e+00 -2.028169e+03 3.388391e+04 0.000000e+00 1.605110e+03 -2.820172e+04 0.000000e+00 2.366933e+04 -1.707187e+04 0.000000e+00 4.570452e+04 -5.961788e+03 0.000000e+00 5.660631e+04 -5.420522e+04 0.000000e+00 -8.229845e+04 -2.937356e+04 0.000000e+00 8.277401e+04 2.938593e+04 0.000000e+00 -7.685139e+04 -1.189281e+04 0.000000e+00 -8.076845e+04 5.776673e+03 0.000000e+00 -4.168002e+02 -7.631942e+04 0.000000e+00 3.470049e+04 -6.631841e+04 0.000000e+00 2.864326e+04 -8.036990e+04 0.000000e+00 5.128498e+04 -6.808455e+04 0.000000e+00 5.581441e+03 8.393207e+04 0.000000e+00 1.368007e+04 -7.743326e+04 0.000000e+00 -6.991017e+04 -5.191095e+04 0.000000e+00 -1.800288e+04 8.530099e+04 0.000000e+00 -3.058922e+04 8.200337e+04 0.000000e+00 8.761157e+04 -5.183600e+03 0.000000e+00 -7.353717e+03 -8.737740e+04 0.000000e+00 -4.107173e+04 -7.855933e+04 0.000000e+00 3.197552e+04 8.212480e+04 0.000000e+00 -6.163746e+04 -6.199822e+04 0.000000e+00 -8.212013e+04 3.271421e+04 0.000000e+00 7.875560e+04 -4.300381e+04 0.000000e+00 8.843887e+04 1.907747e+04 0.000000e+00 -8.861374e+04 -1.781198e+04 0.000000e+00 -7.233895e+04 1.254465e+04 0.000000e+00 6.354412e+04 -4.281020e+04 0.000000e+00 -1.451092e+04 -7.558603e+04 0.000000e+00 8.328980e+04 -3.094606e+04 0.000000e+00 -5.295535e+04 7.194836e+04 0.000000e+00 1.875388e+04 -8.829801e+04 0.000000e+00 6.386205e+04 -6.351211e+04 0.000000e+00 -5.014541e+04 -5.884630e+04 0.000000e+00 6.440677e+04 6.440677e+04 0.000000e+00 -3.238768e+04 7.083753e+04 0.000000e+00 4.360552e+04 7.983623e+04 0.000000e+00 -9.103530e+04 6.523309e+03 0.000000e+00 -3.206857e+04 -8.551857e+04 0.000000e+00 7.821839e+04 2.555025e+03 0.000000e+00 -6.185894e+04 4.721601e+04 0.000000e+00 -8.007967e+04 4.387839e+04 0.000000e+00 7.607112e+04 -2.260676e+04 0.000000e+00 
        </DataArray>
      </Points>
      <Cells>
        <DataArray type="Int32" Name="connectivity" NumberOfComponents="1" format="ascii">
44 123 190 37 38 179 123 44 194 122 143 183 143 57 183 35 36 178 13 0 180 47 125 135 153 51 154 51 153 172 18 19 162 36 50 178 19 55 162 155 154 182 125 47 180 172 153 174 174 149 175 172 174 193 59 174 175 154 51 182 179 38 200 157 54 187 50 37 179 121 133 134 121 134 135 57 143 180 123 148 190 47 13 180 0 57 180 186 176 196 143 125 180 125 119 135 54 157 201 133 121 137 119 121 135 46 186 196 131 53 133 132 133 137 159 157 187 35 178 199 66 63 132 133 53 134 135 134 188 151 176 181 66 132 137 129 45 185 63 61 132 191 128 195 122 183 184 161 49 198 109 177 179 137 120 139 47 135 188 155 182 189 26 51 172 25 26 172 121 120 137 66 137 139 127 136 138 127 129 136 136 64 138 138 68 170 127 138 170 65 68 138 70 139 140 139 120 140 70 67 139 141 72 169 68 141 170 110 141 169 69 72 141 70 140 165 71 70 165 142 76 168 72 142 169 1 4 56 2 34 58 0 14 57 3 24 59 73 76 142 160 142 168 6 7 48 36 37 50 16 17 49 26 27 51 144 103 149 113 93 158 76 75 150 117 125 143 96 113 151 105 109 146 85 103 144 76 150 164 76 164 168 158 157 159 117 119 125 164 95 168 88 124 147 81 80 85 111 112 126 115 116 117 85 87 103 103 87 123 126 112 128 117 118 119 111 107 112 78 77 80 96 93 113 99 104 105 89 84 90 92 157 158 92 156 157 82 84 89 106 105 107 110 107 111 115 117 143 115 101 116 117 116 118 75 78 150 99 105 106 85 86 87 97 99 160 81 85 144 123 147 148 85 80 86 114 101 115 91 90 92 74 71 165 102 155 156 77 74 79 119 120 121 82 83 84 122 115 143 145 144 149 107 105 146 105 104 109 93 92 158 92 90 156 97 98 99 89 90 91 78 80 81 75 74 77 88 100 124 102 154 155 108 98 151 73 75 76 98 96 151 106 107 110 95 97 168 123 87 147 78 82 150 119 118 120 124 161 162 94 163 166 111 126 127 42 43 45 12 13 47 32 33 46 75 77 78 101 94 166 127 126 129 82 89 150 99 98 104 78 81 82 163 79 166 77 79 163 86 80 163 84 83 152 112 107 146 90 84 102 82 81 83 91 92 93 22 23 44 87 88 147 114 115 122 152 145 153 83 145 152 104 98 108 99 106 160 80 77 163 87 86 88 90 102 156 124 100 161 95 96 97 100 94 101 100 101 114 94 86 163 95 93 96 79 165 167 97 96 98 83 81 144 89 91 164 73 74 75 91 93 95 83 144 145 165 140 167 152 153 154 91 95 164 102 84 152 97 160 168 120 118 140 79 74 165 150 89 164 116 101 166 88 94 100 88 86 94 39 40 52 9 10 53 29 30 54 19 20 55 102 152 154 100 114 161 118 116 167 166 79 167 140 118 167 116 166 167 72 73 142 73 71 74 160 106 169 142 160 169 106 110 169 72 71 73 69 71 72 69 70 71 141 110 170 110 111 170 68 69 141 69 67 70 111 127 170 68 67 69 67 66 139 65 67 68 65 66 67 130 64 136 64 65 138 65 63 66 62 64 130 64 63 65 56 130 207 49 161 203 132 131 133 62 63 64 61 131 132 62 61 63 176 58 181 45 129 210 162 55 208 61 60 131 48 61 62 62 130 173 52 191 195 6 48 173 5 6 173 177 50 179 145 149 174 18 162 198 130 56 192 50 177 178 109 104 177 146 109 171 108 151 181 159 46 196 55 148 208 162 161 198 149 103 194 128 112 195 158 159 196 48 62 173 153 145 174 177 108 178 157 156 201 161 114 203 130 136 207 129 126 210 124 162 208 148 147 208 151 113 176 48 60 61 53 131 202 175 149 194 171 52 195 146 171 195 155 189 201 104 108 177 129 185 207 122 184 203 171 179 200 148 55 209 7 8 60 27 28 182 28 29 189 48 7 60 51 27 182 1 56 185 2 58 186 16 49 184 43 1 185 33 2 186 45 43 185 46 33 186 29 54 189 30 31 187 14 15 183 57 14 183 15 16 184 11 12 188 12 47 188 54 30 187 21 22 190 176 113 196 58 176 186 52 40 191 174 59 193 178 108 181 22 44 190 24 25 193 134 53 204 46 159 206 44 175 194 42 45 197 171 109 179 17 18 198 58 34 199 173 130 192 4 5 192 39 52 200 56 4 192 9 53 202 40 41 191 53 10 204 3 59 205 44 23 205 55 20 209 32 46 206 59 24 193 25 172 193 131 60 202 103 123 194 112 146 195 188 134 204 113 158 196 52 171 200 41 42 197 49 17 198 34 35 199 59 175 205 175 44 205 5 173 192 182 28 189 183 15 184 185 56 207 189 54 201 38 39 200 156 155 201 8 9 202 114 122 203 181 58 199 159 187 206 10 11 204 23 3 205 31 32 206 21 190 209 178 181 199 60 8 202 136 129 207 147 124 208 20 21 209 126 128 210 191 41 197 128 191 197 11 188 204 190 148 209 187 31 206 184 49 203 197 45 210 128 197 210 1 4 4 5 5 6 6 7 7 8 8 9 9 10 10 11 11 12 12 13 13 0 0 14 14 15 15 16 16 17 17 18 18 19 19 20 20 21 21 22 22 23 23 3 3 24 24 25 25 26 26 27 27 28 28 29 29 30 30 31 31 32 32 33 33 2 2 34 34 35 35 36 36 37 37 38 38 39 39 40 40 41 41 42 42 43 43 1 
        </DataArray>
        <DataArray type="Int32" Name="offsets" NumberOfComponents="1" format="ascii">
3 6 9 12 15 18 21 24 27 30 33 36 39 42 45 48 51 54 57 60 63 66 69 72 75 78 81 84 87 90 93 96 99 102 105 108 111 114 117 120 123 126 129 132 135 138 141 144 147 150 153 156 159 162 165 168 171 174 177 180 183 186 189 192 195 198 201 204 207 210 213 216 219 222 225 228 231 234 237 240 243 246 249 252 255 258 261 264 267 270 273 276 279 282 285 288 291 294 297 300 303 306 309 312 315 318 321 324 327 330 333 336 339 342 345 348 351 354 357 360 363 366 369 372 375 378 381 384 387 390 393 396 399 402 405 408 411 414 417 420 423 426 429 432 435 438 441 444 447 450 453 456 459 462 465 468 471 474 477 480 483 486 489 492 495 498 501 504 507 510 513 516 519 522 525 528 531 534 537 540 543 546 549 552 555 558 561 564 567 570 573 576 579 582 585 588 591 594 597 600 603 606 609 612 615 618 621 624 627 630 633 636 639 642 645 648 651 654 657 660 663 666 669 672 675 678 681 684 687 690 693 696 699 702 705 708 711 714 717 720 723 726 729 732 735 738 741 744 747 750 753 756 759 762 765 768 771 774 777 780 783 786 789 792 795 798 801 804 807 810 813 816 819 822 825 828 831 834 837 840 843 846 849 852 855 858 861 864 867 870 873 876 879 882 885 888 891 894 897 900 903 906 909 912 915 918 921 924 927 930 933 936 939 942 945 948 951 954 957 960 963 966 969 972 975 978 981 984 987 990 993 996 999 1002 1005 1008 1011 1014 1017 1020 1023 1026 1029 1032 1035 1038 1041 1044 1047 1050 1053 1056 1059 1062 1065 1068 1071 1074 1077 1080 1083 1086 1089 1092 1095 1098 1101 1104 1107 1110 1113 1116 1119 1122 1125 1128 1130 1132 1134 1136 1138 1140 1142 1144 1146 1148 1150 1152 1154 1156 1158 1160 1162 1164 1166 1168 1170 1172 1174 1176 1178 1180 1182 1184 1186 1188 1190 1192 1194 1196 1198 1200 1202 1204 1206 1208 1210 1212 1214 1216 
        </DataArray>
        <DataArray type="Int32" Name="types" NumberOfComponents="1" format="ascii">
5 5 5 5 5 5 5 5 5 5 5 5 5 5 5 5 5 5 5 5 5 5 5 5 5 5 5 5 5 5 5 5 5 5 5 5 5 5 5 5 5 5 5 5 5 5 5 5 5 5 5 5 5 5 5 5 5 5 5 5 5 5 5 5 5 5 5 5 5 5 5 5 5 5 5 5 5 5 5 5 5 5 5 5 5 5 5 5 5 5 5 5 5 5 5 5 5 5 5 5 5 5 5 5 5 5 5 5 5 5 5 5 5 5 5 5 5 5 5 5 5 5 5 5 5 5 5 5 5 5 5 5 5 5 5 5 5 5 5 5 5 5 5 5 5 5 5 5 5 5 5 5 5 5 5 5 5 5 5 5 5 5 5 5 5 5 5 5 5 5 5 5 5 5 5 5 5 5 5 5 5 5 5 5 5 5 5 5 5 5 5 5 5 5 5 5 5 5 5 5 5 5 5 5 5 5 5 5 5 5 5 5 5 5 5 5 5 5 5 5 5 5 5 5 5 5 5 5 5 5 5 5 5 5 5 5 5 5 5 5 5 5 5 5 5 5 5 5 5 5 5 5 5 5 5 5 5 5 5 5 5 5 5 5 5 5 5 5 5 5 5 5 5 5 5 5 5 5 5 5 5 5 5 5 5 5 5 5 5 5 5 5 5 5 5 5 5 5 5 5 5 5 5 5 5 5 5 5 5 5 5 5 5 5 5 5 5 5 5 5 5 5 5 5 5 5 5 5 5 5 5 5 5 5 5 5 5 5 5 5 5 5 5 5 5 5 5 5 5 5 5 5 5 5 5 5 5 5 5 5 5 5 5 5 5 5 5 5 5 5 5 5 5 5 5 5 3 3 3 3 3 3 3 3 3 3 3 3 3 3 3 3 3 3 3 3 3 3 3 3 3 3 3 3 3 3 3 3 3 3 3 3 3 3 3 3 3 3 3 3 
        </DataArray>
      </Cells>
    </Piece>
  </UnstructuredGrid>
</VTKFile>
