<?xml version="1.0"?>
<VTKFile type="UnstructuredGrid" version="0.1" byte_order="BigEndian">
  <UnstructuredGrid>
    <Piece NumberOfPoints="41"  NumberOfCells="80">
      <PointData>
        <DataArray type="Int32" Name="NodeNumber" NumberOfComponents="1" format="ascii">
1 2 3 4 5 6 7 8 9 10 11 12 13 14 15 16 17 18 19 20 21 22 23 24 25 26 27 28 29 30 31 32 33 34 35 36 37 38 39 40 41 
        </DataArray>
      </PointData>
      <CellData>
        <DataArray type="Int32" Name="ElementNumber" NumberOfComponents="1" format="ascii">
1 2 3 4 5 6 7 8 9 10 11 12 13 14 15 16 17 18 19 20 21 22 23 24 25 26 27 28 29 30 31 32 33 34 35 36 37 38 39 40 41 42 43 44 45 46 47 48 49 50 51 52 53 54 55 56 57 58 59 60 61 62 63 64 65 66 67 68 69 70 71 72 73 74 75 76 77 78 79 80 
        </DataArray>
        <DataArray type="Int32" Name="GeometryIds" NumberOfComponents="1" format="ascii">
1 1 1 1 1 1 1 1 1 1 1 1 1 1 1 1 1 1 1 1 1 1 1 1 1 1 1 1 1 1 1 1 1 1 1 1 1 1 1 1 1 1 1 1 1 1 1 1 1 1 1 1 1 1 1 1 1 1 1 1 1 1 1 1 101 101 101 101 102 102 102 102 103 103 103 103 104 104 104 104 
        </DataArray>
      </CellData>
      <Points>
        <DataArray type="Float64" Name="ElementNumber" NumberOfComponents="3" format="ascii">
0.000000e+00 1.000000e+05 0.000000e+00 1.000000e+05 0.000000e+00 0.000000e+00 0.000000e+00 -1.000000e+05 0.000000e+00 -1.000000e+05 0.000000e+00 0.000000e+00 9.238795e+04 3.826834e+04 0.000000e+00 7.071068e+04 7.071068e+04 0.000000e+00 3.826834e+04 9.238795e+04 0.000000e+00 -3.826834e+04 9.238795e+04 0.000000e+00 -7.071068e+04 7.071068e+04 0.000000e+00 -9.238795e+04 3.826834e+04 0.000000e+00 -9.238795e+04 -3.826834e+04 0.000000e+00 -7.071068e+04 -7.071068e+04 0.000000e+00 -3.826834e+04 -9.238795e+04 0.000000e+00 3.826834e+04 -9.238795e+04 0.000000e+00 7.071068e+04 -7.071068e+04 0.000000e+00 9.238795e+04 -3.826834e+04 0.000000e+00 5.968062e+04 -6.619010e+03 0.000000e+00 -6.689596e+04 1.309472e+04 0.000000e+00 1.428688e+04 6.341295e+04 0.000000e+00 -1.254195e+04 -6.305262e+04 0.000000e+00 5.716742e+04 3.499009e+04 0.000000e+00 -3.780562e+04 5.468519e+04 0.000000e+00 -5.837834e+04 -3.886462e+04 0.000000e+00 3.571644e+04 -5.345343e+04 0.000000e+00 -1.479423e+04 7.437564e+04 0.000000e+00 -6.602314e+03 3.254297e+04 0.000000e+00 -3.970028e+04 2.064445e+04 0.000000e+00 -1.668095e+04 -7.322675e+03 0.000000e+00 2.007227e+04 -4.135396e+03 0.000000e+00 6.960028e+03 -3.682101e+04 0.000000e+00 2.667641e+04 2.684901e+04 0.000000e+00 -7.316918e+04 -1.467587e+04 0.000000e+00 1.479423e+04 -7.437564e+04 0.000000e+00 7.730900e+04 1.665985e+04 0.000000e+00 4.142195e+04 5.767014e+04 0.000000e+00 -6.305262e+04 4.213041e+04 0.000000e+00 -4.213041e+04 -6.305262e+04 0.000000e+00 6.040027e+04 -3.983391e+04 0.000000e+00 -2.489465e+04 -3.725748e+04 0.000000e+00 3.656593e+04 -2.817255e+04 0.000000e+00 -4.661989e+04 -1.073025e+04 0.000000e+00 
        </DataArray>
      </Points>
      <Cells>
        <DataArray type="Int32" Name="connectivity" NumberOfComponents="1" format="ascii">
16 20 30 28 16 30 20 16 33 18 24 25 24 21 25 7 8 21 10 11 22 4 5 20 13 14 23 6 0 18 9 3 17 12 2 19 15 1 16 16 28 39 25 27 28 18 25 30 18 30 34 23 29 32 29 19 32 25 21 26 30 20 34 28 27 29 25 26 27 21 8 35 22 11 36 20 5 34 23 14 37 0 7 24 3 10 31 2 13 32 1 4 33 7 21 24 10 22 31 13 23 32 4 20 33 5 6 34 8 9 35 11 12 36 14 15 37 6 18 34 9 17 35 12 19 36 15 16 37 18 0 24 17 3 31 19 2 32 16 1 33 25 28 30 27 26 40 29 23 39 28 29 39 26 21 35 17 26 35 38 27 40 22 38 40 26 17 40 19 29 38 29 27 38 22 36 38 36 19 38 23 37 39 37 16 39 31 22 40 17 31 40 1 4 4 5 5 6 6 0 0 7 7 8 8 9 9 3 3 10 10 11 11 12 12 2 2 13 13 14 14 15 15 1 
        </DataArray>
        <DataArray type="Int32" Name="offsets" NumberOfComponents="1" format="ascii">
3 6 9 12 15 18 21 24 27 30 33 36 39 42 45 48 51 54 57 60 63 66 69 72 75 78 81 84 87 90 93 96 99 102 105 108 111 114 117 120 123 126 129 132 135 138 141 144 147 150 153 156 159 162 165 168 171 174 177 180 183 186 189 192 194 196 198 200 202 204 206 208 210 212 214 216 218 220 222 224 
        </DataArray>
        <DataArray type="Int32" Name="types" NumberOfComponents="1" format="ascii">
5 5 5 5 5 5 5 5 5 5 5 5 5 5 5 5 5 5 5 5 5 5 5 5 5 5 5 5 5 5 5 5 5 5 5 5 5 5 5 5 5 5 5 5 5 5 5 5 5 5 5 5 5 5 5 5 5 5 5 5 5 5 5 5 3 3 3 3 3 3 3 3 3 3 3 3 3 3 3 3 
        </DataArray>
      </Cells>
    </Piece>
  </UnstructuredGrid>
</VTKFile>
