<?xml version="1.0"?>
<VTKFile type="UnstructuredGrid" version="0.1" byte_order="BigEndian">
  <UnstructuredGrid>
    <Piece NumberOfPoints="211"  NumberOfCells="420">
      <PointData>
        <DataArray type="Int32" Name="NodeNumber" NumberOfComponents="1" format="ascii">
1 2 3 4 5 6 7 8 9 10 11 12 13 14 15 16 17 18 19 20 21 22 23 24 25 26 27 28 29 30 31 32 33 34 35 36 37 38 39 40 41 42 43 44 45 46 47 48 49 50 51 52 53 54 55 56 57 58 59 60 61 62 63 64 65 66 67 68 69 70 71 72 73 74 75 76 77 78 79 80 81 82 83 84 85 86 87 88 89 90 91 92 93 94 95 96 97 98 99 100 101 102 103 104 105 106 107 108 109 110 111 112 113 114 115 116 117 118 119 120 121 122 123 124 125 126 127 128 129 130 131 132 133 134 135 136 137 138 139 140 141 142 143 144 145 146 147 148 149 150 151 152 153 154 155 156 157 158 159 160 161 162 163 164 165 166 167 168 169 170 171 172 173 174 175 176 177 178 179 180 181 182 183 184 185 186 187 188 189 190 191 192 193 194 195 196 197 198 199 200 201 202 203 204 205 206 207 208 209 210 211 
        </DataArray>
      </PointData>
      <CellData>
        <DataArray type="Int32" Name="ElementNumber" NumberOfComponents="1" format="ascii">
1 2 3 4 5 6 7 8 9 10 11 12 13 14 15 16 17 18 19 20 21 22 23 24 25 26 27 28 29 30 31 32 33 34 35 36 37 38 39 40 41 42 43 44 45 46 47 48 49 50 51 52 53 54 55 56 57 58 59 60 61 62 63 64 65 66 67 68 69 70 71 72 73 74 75 76 77 78 79 80 81 82 83 84 85 86 87 88 89 90 91 92 93 94 95 96 97 98 99 100 101 102 103 104 105 106 107 108 109 110 111 112 113 114 115 116 117 118 119 120 121 122 123 124 125 126 127 128 129 130 131 132 133 134 135 136 137 138 139 140 141 142 143 144 145 146 147 148 149 150 151 152 153 154 155 156 157 158 159 160 161 162 163 164 165 166 167 168 169 170 171 172 173 174 175 176 177 178 179 180 181 182 183 184 185 186 187 188 189 190 191 192 193 194 195 196 197 198 199 200 201 202 203 204 205 206 207 208 209 210 211 212 213 214 215 216 217 218 219 220 221 222 223 224 225 226 227 228 229 230 231 232 233 234 235 236 237 238 239 240 241 242 243 244 245 246 247 248 249 250 251 252 253 254 255 256 257 258 259 260 261 262 263 264 265 266 267 268 269 270 271 272 273 274 275 276 277 278 279 280 281 282 283 284 285 286 287 288 289 290 291 292 293 294 295 296 297 298 299 300 301 302 303 304 305 306 307 308 309 310 311 312 313 314 315 316 317 318 319 320 321 322 323 324 325 326 327 328 329 330 331 332 333 334 335 336 337 338 339 340 341 342 343 344 345 346 347 348 349 350 351 352 353 354 355 356 357 358 359 360 361 362 363 364 365 366 367 368 369 370 371 372 373 374 375 376 377 378 379 380 381 382 383 384 385 386 387 388 389 390 391 392 393 394 395 396 397 398 399 400 401 402 403 404 405 406 407 408 409 410 411 412 413 414 415 416 417 418 419 420 
        </DataArray>
        <DataArray type="Int32" Name="GeometryIds" NumberOfComponents="1" format="ascii">
1 1 1 1 1 1 1 1 1 1 1 1 1 1 1 1 1 1 1 1 1 1 1 1 1 1 1 1 1 1 1 1 1 1 1 1 1 1 1 1 1 1 1 1 1 1 1 1 1 1 1 1 1 1 1 1 1 1 1 1 1 1 1 1 1 1 1 1 1 1 1 1 1 1 1 1 1 1 1 1 1 1 1 1 1 1 1 1 1 1 1 1 1 1 1 1 1 1 1 1 1 1 1 1 1 1 1 1 1 1 1 1 1 1 1 1 1 1 1 1 1 1 1 1 1 1 1 1 1 1 1 1 1 1 1 1 1 1 1 1 1 1 1 1 1 1 1 1 1 1 1 1 1 1 1 1 1 1 1 1 1 1 1 1 1 1 1 1 1 1 1 1 1 1 1 1 1 1 1 1 1 1 1 1 1 1 1 1 1 1 1 1 1 1 1 1 1 1 1 1 1 1 1 1 1 1 1 1 1 1 1 1 1 1 1 1 1 1 1 1 1 1 1 1 1 1 1 1 1 1 1 1 1 1 1 1 1 1 1 1 1 1 1 1 1 1 1 1 1 1 1 1 1 1 1 1 1 1 1 1 1 1 1 1 1 1 1 1 1 1 1 1 1 1 1 1 1 1 1 1 1 1 1 1 1 1 1 1 1 1 1 1 1 1 1 1 1 1 1 1 1 1 1 1 1 1 1 1 1 1 1 1 1 1 1 1 1 1 1 1 1 1 1 1 1 1 1 1 1 1 1 1 1 1 1 1 1 1 1 1 1 1 1 1 1 1 1 1 1 1 1 1 1 1 1 1 1 1 1 1 1 1 1 1 1 1 1 1 1 1 1 1 1 1 1 1 101 101 101 101 101 101 101 101 101 101 101 102 102 102 102 102 102 102 102 102 102 102 103 103 103 103 103 103 103 103 103 103 103 104 104 104 104 104 104 104 104 104 104 104 
        </DataArray>
      </CellData>
      <Points>
        <DataArray type="Float64" Name="ElementNumber" NumberOfComponents="3" format="ascii">
0.000000e+00 1.000000e+04 0.000000e+00 1.000000e+04 0.000000e+00 0.000000e+00 0.000000e+00 -1.000000e+04 0.000000e+00 -1.000000e+04 0.000000e+00 0.000000e+00 9.898214e+03 1.423148e+03 0.000000e+00 9.594930e+03 2.817326e+03 0.000000e+00 9.096320e+03 4.154150e+03 0.000000e+00 8.412535e+03 5.406408e+03 0.000000e+00 7.557496e+03 6.548607e+03 0.000000e+00 6.548607e+03 7.557496e+03 0.000000e+00 5.406408e+03 8.412535e+03 0.000000e+00 4.154150e+03 9.096320e+03 0.000000e+00 2.817326e+03 9.594930e+03 0.000000e+00 1.423148e+03 9.898214e+03 0.000000e+00 -1.423148e+03 9.898214e+03 0.000000e+00 -2.817326e+03 9.594930e+03 0.000000e+00 -4.154150e+03 9.096320e+03 0.000000e+00 -5.406408e+03 8.412535e+03 0.000000e+00 -6.548607e+03 7.557496e+03 0.000000e+00 -7.557496e+03 6.548607e+03 0.000000e+00 -8.412535e+03 5.406408e+03 0.000000e+00 -9.096320e+03 4.154150e+03 0.000000e+00 -9.594930e+03 2.817326e+03 0.000000e+00 -9.898214e+03 1.423148e+03 0.000000e+00 -9.898214e+03 -1.423148e+03 0.000000e+00 -9.594930e+03 -2.817326e+03 0.000000e+00 -9.096320e+03 -4.154150e+03 0.000000e+00 -8.412535e+03 -5.406408e+03 0.000000e+00 -7.557496e+03 -6.548607e+03 0.000000e+00 -6.548607e+03 -7.557496e+03 0.000000e+00 -5.406408e+03 -8.412535e+03 0.000000e+00 -4.154150e+03 -9.096320e+03 0.000000e+00 -2.817326e+03 -9.594930e+03 0.000000e+00 -1.423148e+03 -9.898214e+03 0.000000e+00 1.423148e+03 -9.898214e+03 0.000000e+00 2.817326e+03 -9.594930e+03 0.000000e+00 4.154150e+03 -9.096320e+03 0.000000e+00 5.406408e+03 -8.412535e+03 0.000000e+00 6.548607e+03 -7.557496e+03 0.000000e+00 7.557496e+03 -6.548607e+03 0.000000e+00 8.412535e+03 -5.406408e+03 0.000000e+00 9.096320e+03 -4.154150e+03 0.000000e+00 9.594930e+03 -2.817326e+03 0.000000e+00 9.898214e+03 -1.423148e+03 0.000000e+00 8.666166e+03 -2.097709e+03 0.000000e+00 -8.462244e+03 1.841942e+03 0.000000e+00 -1.790307e+03 -8.429447e+03 0.000000e+00 1.841633e+03 8.647259e+03 0.000000e+00 4.137071e+03 -7.676093e+03 0.000000e+00 -4.188104e+03 7.669940e+03 0.000000e+00 -7.686684e+03 -4.212770e+03 0.000000e+00 7.732626e+03 4.126573e+03 0.000000e+00 -5.177443e+03 -7.215826e+03 0.000000e+00 5.420977e+03 7.035795e+03 0.000000e+00 -6.991869e+03 5.236004e+03 0.000000e+00 7.051907e+03 -5.193752e+03 0.000000e+00 5.388813e+02 -8.898741e+03 0.000000e+00 -7.654024e+02 8.815745e+03 0.000000e+00 -8.716625e+03 -6.234253e+02 0.000000e+00 8.836185e+03 6.775614e+02 0.000000e+00 -5.400241e+03 7.017118e+03 0.000000e+00 -4.273671e+03 6.284857e+03 0.000000e+00 -3.002599e+03 6.901798e+03 0.000000e+00 -3.087555e+03 5.496177e+03 0.000000e+00 -1.799201e+03 6.135126e+03 0.000000e+00 -1.877497e+03 4.712961e+03 0.000000e+00 -3.168387e+03 4.075851e+03 0.000000e+00 -1.957709e+03 3.289493e+03 0.000000e+00 -6.809086e+02 3.931290e+03 0.000000e+00 -7.609168e+02 2.506795e+03 0.000000e+00 -2.034771e+03 1.864329e+03 0.000000e+00 -8.405787e+02 1.082140e+03 0.000000e+00 4.332712e+02 1.724626e+03 0.000000e+00 3.528301e+02 3.000970e+02 0.000000e+00 -9.210948e+02 -3.423777e+02 0.000000e+00 2.722855e+02 -1.124415e+03 0.000000e+00 1.546235e+03 -4.819443e+02 0.000000e+00 -1.001657e+03 -1.766887e+03 0.000000e+00 1.917161e+02 -2.548923e+03 0.000000e+00 -2.195026e+03 -9.848517e+02 0.000000e+00 -1.082230e+03 -3.191394e+03 0.000000e+00 1.111405e+02 -3.973430e+03 0.000000e+00 1.385088e+03 -3.330959e+03 0.000000e+00 1.304511e+03 -4.755465e+03 0.000000e+00 2.578459e+03 -4.112994e+03 0.000000e+00 -1.162807e+03 -4.615901e+03 0.000000e+00 -2.356177e+03 -3.833865e+03 0.000000e+00 -2.436754e+03 -5.258372e+03 0.000000e+00 -3.630124e+03 -4.476337e+03 0.000000e+00 2.659036e+03 -2.688488e+03 0.000000e+00 3.852407e+03 -3.470523e+03 0.000000e+00 3.932984e+03 -2.046017e+03 0.000000e+00 5.126354e+03 -2.828052e+03 0.000000e+00 5.206932e+03 -1.403546e+03 0.000000e+00 -3.549547e+03 -3.051830e+03 0.000000e+00 4.013562e+03 -6.215102e+02 0.000000e+00 5.287509e+03 2.096082e+01 0.000000e+00 4.094139e+03 8.029963e+02 0.000000e+00 5.368087e+03 1.445467e+03 0.000000e+00 4.174717e+03 2.227503e+03 0.000000e+00 -4.823494e+03 -3.694301e+03 0.000000e+00 -4.742917e+03 -2.269795e+03 0.000000e+00 3.771829e+03 -4.895030e+03 0.000000e+00 -1.262948e+03 -6.001614e+03 0.000000e+00 5.435242e+03 2.849491e+03 0.000000e+00 4.253057e+03 3.648596e+03 0.000000e+00 2.980974e+03 3.008969e+03 0.000000e+00 3.061489e+03 4.433381e+03 0.000000e+00 6.607109e+03 2.092319e+03 0.000000e+00 5.479301e+03 4.262354e+03 0.000000e+00 1.787842e+03 3.791369e+03 0.000000e+00 1.868459e+03 5.215936e+03 0.000000e+00 3.118098e+03 5.821312e+03 0.000000e+00 6.412528e+03 -7.572083e+02 0.000000e+00 -5.982354e+03 -2.859604e+03 0.000000e+00 -5.930535e+03 -1.478982e+03 0.000000e+00 -4.661380e+03 -8.438252e+02 0.000000e+00 -5.854591e+03 -6.154589e+01 0.000000e+00 -4.581671e+03 5.793560e+02 0.000000e+00 -5.797912e+03 1.385943e+03 0.000000e+00 -4.506132e+03 2.010181e+03 0.000000e+00 -5.783642e+03 2.873530e+03 0.000000e+00 -7.210234e+03 -2.130230e+03 0.000000e+00 -2.504911e+03 -6.931527e+03 0.000000e+00 -4.858011e+03 -5.048519e+03 0.000000e+00 -7.065564e+03 7.635914e+02 0.000000e+00 1.983543e+03 6.558026e+03 0.000000e+00 6.806550e+02 5.984631e+03 0.000000e+00 3.193471e+03 7.152698e+03 0.000000e+00 8.274212e+02 7.437526e+03 0.000000e+00 -1.594266e+03 7.633146e+03 0.000000e+00 -5.550016e+03 5.695819e+03 0.000000e+00 -4.437146e+03 4.868968e+03 0.000000e+00 -5.756491e+03 4.327289e+03 0.000000e+00 -7.003666e+03 3.704346e+03 0.000000e+00 -7.092169e+03 2.285265e+03 0.000000e+00 -4.501653e+02 6.719094e+03 0.000000e+00 -4.479840e+03 3.467006e+03 0.000000e+00 -5.887517e+02 5.342785e+03 0.000000e+00 -3.227244e+03 2.646217e+03 0.000000e+00 -3.308775e+03 1.222820e+03 0.000000e+00 5.135490e+02 3.149126e+03 0.000000e+00 1.626783e+03 9.425672e+02 0.000000e+00 -7.402546e+03 -6.902084e+02 0.000000e+00 2.730278e+01 -5.391471e+03 0.000000e+00 1.233240e+03 -6.163864e+03 0.000000e+00 4.292925e+03 5.018327e+03 0.000000e+00 -3.654893e+03 -5.860281e+03 0.000000e+00 -3.929771e+03 -7.103141e+03 0.000000e+00 -1.364939e+02 -6.730040e+03 0.000000e+00 1.465665e+03 -1.906452e+03 0.000000e+00 6.509728e+03 6.929250e+02 0.000000e+00 2.499432e+03 -5.534816e+03 0.000000e+00 2.490007e+03 -6.941745e+03 0.000000e+00 3.781547e+03 -6.315178e+03 0.000000e+00 4.965199e+03 -5.677065e+03 0.000000e+00 4.986690e+03 -4.249217e+03 0.000000e+00 6.410411e+03 -3.816271e+03 0.000000e+00 6.357305e+03 -2.216658e+03 0.000000e+00 7.545938e+03 -2.857926e+03 0.000000e+00 2.900701e+03 1.584938e+03 0.000000e+00 -6.265648e+03 -4.299497e+03 0.000000e+00 -6.051815e+03 -6.010395e+03 0.000000e+00 -2.275601e+03 -2.409359e+03 0.000000e+00 2.739612e+03 -1.263981e+03 0.000000e+00 -3.388391e+03 -2.028169e+02 0.000000e+00 -2.114773e+03 4.398737e+02 0.000000e+00 -3.468810e+03 -1.627079e+03 0.000000e+00 2.820172e+03 1.605110e+02 0.000000e+00 1.707187e+03 2.366933e+03 0.000000e+00 5.961788e+02 4.570452e+03 0.000000e+00 5.420522e+03 5.660631e+03 0.000000e+00 2.937356e+03 -8.229845e+03 0.000000e+00 -2.938593e+03 8.277401e+03 0.000000e+00 1.189281e+03 -7.685139e+03 0.000000e+00 -5.776673e+02 -8.076845e+03 0.000000e+00 7.631942e+03 -4.168001e+01 0.000000e+00 6.631841e+03 3.470049e+03 0.000000e+00 8.036990e+03 2.864326e+03 0.000000e+00 6.808455e+03 5.128498e+03 0.000000e+00 -8.393207e+03 5.581441e+02 0.000000e+00 7.743326e+03 1.368007e+03 0.000000e+00 5.191095e+03 -6.991017e+03 0.000000e+00 7.855933e+03 -4.107173e+03 0.000000e+00 -8.231424e+03 -3.074905e+03 0.000000e+00 -8.508996e+03 -1.793207e+03 0.000000e+00 5.183600e+02 8.761157e+03 0.000000e+00 8.737740e+03 -7.353717e+02 0.000000e+00 6.199822e+03 -6.163746e+03 0.000000e+00 -8.212480e+03 3.197552e+03 0.000000e+00 -3.271421e+03 -8.212013e+03 0.000000e+00 4.300381e+03 7.875560e+03 0.000000e+00 -1.907747e+03 8.843887e+03 0.000000e+00 1.781198e+03 -8.861374e+03 0.000000e+00 -1.254465e+03 -7.233895e+03 0.000000e+00 4.281020e+03 6.354412e+03 0.000000e+00 7.558603e+03 -1.451092e+03 0.000000e+00 3.094606e+03 8.328980e+03 0.000000e+00 -7.194836e+03 -5.295535e+03 0.000000e+00 8.829801e+03 1.875388e+03 0.000000e+00 6.351211e+03 6.386205e+03 0.000000e+00 5.884630e+03 -5.014541e+03 0.000000e+00 -6.440677e+03 6.440677e+03 0.000000e+00 -7.083753e+03 -3.238768e+03 0.000000e+00 -7.983623e+03 4.360552e+03 0.000000e+00 -6.523309e+02 -9.103530e+03 0.000000e+00 8.551857e+03 -3.206857e+03 0.000000e+00 -2.555025e+02 7.821839e+03 0.000000e+00 -4.721601e+03 -6.185894e+03 0.000000e+00 -4.387839e+03 -8.007967e+03 0.000000e+00 2.260676e+03 7.607112e+03 0.000000e+00 
        </DataArray>
      </Points>
      <Cells>
        <DataArray type="Int32" Name="connectivity" NumberOfComponents="1" format="ascii">
46 123 190 7 8 179 123 46 194 122 143 185 143 58 185 5 6 178 23 3 180 45 125 135 153 48 154 48 153 172 28 29 162 6 51 178 29 52 162 155 154 182 125 45 180 172 153 174 174 149 175 172 174 193 56 174 175 154 48 182 179 8 200 157 55 183 51 7 179 121 133 134 121 134 135 58 143 180 123 148 190 45 23 180 3 58 180 187 176 196 143 125 180 125 119 135 55 157 201 133 121 137 119 121 135 44 187 196 131 54 133 132 133 137 159 157 183 5 178 199 66 63 132 133 54 134 135 134 189 151 176 181 66 132 137 129 47 186 63 61 132 191 128 195 184 122 185 161 50 198 109 177 179 137 120 139 45 135 189 155 182 188 36 48 172 35 36 172 121 120 137 66 137 139 127 136 138 127 129 136 136 64 138 138 68 170 127 138 170 65 68 138 70 139 140 139 120 140 70 67 139 141 72 169 68 141 170 110 141 169 69 72 141 70 140 166 71 70 166 142 76 168 72 142 169 2 34 56 0 14 57 3 24 58 1 4 59 160 142 168 73 76 142 16 17 49 26 27 50 36 37 48 6 7 51 144 103 149 113 93 158 76 75 150 85 103 144 105 109 146 117 125 143 76 164 168 96 113 151 164 95 168 76 150 164 158 157 159 117 119 125 88 124 147 81 80 85 111 112 126 85 87 103 103 87 123 126 112 128 115 116 117 117 118 119 111 107 112 78 77 80 99 104 105 96 93 113 106 105 107 89 84 90 92 156 157 110 107 111 92 157 158 82 84 89 99 105 106 115 101 116 85 86 87 115 117 143 117 116 118 97 99 160 81 85 144 123 147 148 32 33 46 75 78 150 12 13 47 85 80 86 22 23 45 114 101 115 91 90 92 74 71 166 102 155 156 119 120 121 77 74 79 42 43 44 82 83 84 145 144 149 107 105 146 105 104 109 97 98 99 92 90 156 78 80 81 75 74 77 93 92 158 88 100 124 89 90 91 122 115 143 102 154 155 106 107 110 98 96 151 95 97 168 73 75 76 108 98 151 123 87 147 119 118 120 78 82 150 111 126 127 124 161 162 75 77 78 99 98 104 127 126 129 94 163 167 82 89 150 78 81 82 84 83 152 86 80 163 77 79 163 101 94 167 112 107 146 90 84 102 82 81 83 163 79 167 87 88 147 91 92 93 99 106 160 83 145 152 104 98 108 152 145 153 87 86 88 80 77 163 90 102 156 114 115 122 95 96 97 124 100 161 100 94 101 94 86 163 97 96 98 100 101 114 95 93 96 83 81 144 89 91 164 91 93 95 73 74 75 83 144 145 152 153 154 102 84 152 97 160 168 120 118 140 91 95 164 150 89 164 29 30 52 9 10 53 88 94 100 19 20 54 88 86 94 140 165 166 79 74 166 39 40 55 165 79 166 116 101 167 102 152 154 118 116 165 100 114 161 140 118 165 165 116 167 79 165 167 72 73 142 73 71 74 160 106 169 142 160 169 106 110 169 72 71 73 69 71 72 69 70 71 141 110 170 110 111 170 68 69 141 69 67 70 111 127 170 68 67 69 67 66 139 65 67 68 65 66 67 130 64 136 64 65 138 65 63 66 62 64 130 64 63 65 57 130 207 50 161 203 132 131 133 62 63 64 61 131 132 62 61 63 176 59 181 47 129 210 162 52 208 61 60 131 49 61 62 62 130 173 53 191 195 16 49 173 15 16 173 177 51 179 145 149 174 28 162 198 130 57 192 51 177 178 109 104 177 146 109 171 108 151 181 159 44 196 52 148 208 162 161 198 149 103 194 128 112 195 158 159 196 49 62 173 153 145 174 177 108 178 157 156 201 161 114 203 130 136 207 129 126 210 124 162 208 148 147 208 151 113 176 49 60 61 54 131 202 175 149 194 171 53 195 146 171 195 155 188 201 104 108 177 129 186 207 122 184 203 171 179 200 148 52 209 17 18 60 37 38 182 38 39 188 49 17 60 48 37 182 0 57 186 1 59 187 40 41 183 26 50 184 47 13 186 13 0 186 39 55 188 24 25 185 44 43 187 43 1 187 58 24 185 25 26 184 22 45 189 21 22 189 55 40 183 31 32 190 176 113 196 59 176 187 53 10 191 174 56 193 178 108 181 32 46 190 34 35 193 134 54 204 44 159 206 46 175 194 12 47 197 171 109 179 27 28 198 59 4 199 173 130 192 14 15 192 9 53 200 57 14 192 19 54 202 10 11 191 54 20 204 2 56 205 46 33 205 52 30 209 42 44 206 56 34 193 35 172 193 131 60 202 103 123 194 112 146 195 189 134 204 113 158 196 53 171 200 11 12 197 50 27 198 4 5 199 56 175 205 175 46 205 15 173 192 182 38 188 25 184 185 186 57 207 188 55 201 8 9 200 156 155 201 18 19 202 114 122 203 181 59 199 159 183 206 20 21 204 33 2 205 41 42 206 31 190 209 178 181 199 60 18 202 136 129 207 147 124 208 30 31 209 126 128 210 191 11 197 128 191 197 21 189 204 190 148 209 183 41 206 184 50 203 197 47 210 128 197 210 1 4 4 5 5 6 6 7 7 8 8 9 9 10 10 11 11 12 12 13 13 0 0 14 14 15 15 16 16 17 17 18 18 19 19 20 20 21 21 22 22 23 23 3 3 24 24 25 25 26 26 27 27 28 28 29 29 30 30 31 31 32 32 33 33 2 2 34 34 35 35 36 36 37 37 38 38 39 39 40 40 41 41 42 42 43 43 1 
        </DataArray>
        <DataArray type="Int32" Name="offsets" NumberOfComponents="1" format="ascii">
3 6 9 12 15 18 21 24 27 30 33 36 39 42 45 48 51 54 57 60 63 66 69 72 75 78 81 84 87 90 93 96 99 102 105 108 111 114 117 120 123 126 129 132 135 138 141 144 147 150 153 156 159 162 165 168 171 174 177 180 183 186 189 192 195 198 201 204 207 210 213 216 219 222 225 228 231 234 237 240 243 246 249 252 255 258 261 264 267 270 273 276 279 282 285 288 291 294 297 300 303 306 309 312 315 318 321 324 327 330 333 336 339 342 345 348 351 354 357 360 363 366 369 372 375 378 381 384 387 390 393 396 399 402 405 408 411 414 417 420 423 426 429 432 435 438 441 444 447 450 453 456 459 462 465 468 471 474 477 480 483 486 489 492 495 498 501 504 507 510 513 516 519 522 525 528 531 534 537 540 543 546 549 552 555 558 561 564 567 570 573 576 579 582 585 588 591 594 597 600 603 606 609 612 615 618 621 624 627 630 633 636 639 642 645 648 651 654 657 660 663 666 669 672 675 678 681 684 687 690 693 696 699 702 705 708 711 714 717 720 723 726 729 732 735 738 741 744 747 750 753 756 759 762 765 768 771 774 777 780 783 786 789 792 795 798 801 804 807 810 813 816 819 822 825 828 831 834 837 840 843 846 849 852 855 858 861 864 867 870 873 876 879 882 885 888 891 894 897 900 903 906 909 912 915 918 921 924 927 930 933 936 939 942 945 948 951 954 957 960 963 966 969 972 975 978 981 984 987 990 993 996 999 1002 1005 1008 1011 1014 1017 1020 1023 1026 1029 1032 1035 1038 1041 1044 1047 1050 1053 1056 1059 1062 1065 1068 1071 1074 1077 1080 1083 1086 1089 1092 1095 1098 1101 1104 1107 1110 1113 1116 1119 1122 1125 1128 1130 1132 1134 1136 1138 1140 1142 1144 1146 1148 1150 1152 1154 1156 1158 1160 1162 1164 1166 1168 1170 1172 1174 1176 1178 1180 1182 1184 1186 1188 1190 1192 1194 1196 1198 1200 1202 1204 1206 1208 1210 1212 1214 1216 
        </DataArray>
        <DataArray type="Int32" Name="types" NumberOfComponents="1" format="ascii">
5 5 5 5 5 5 5 5 5 5 5 5 5 5 5 5 5 5 5 5 5 5 5 5 5 5 5 5 5 5 5 5 5 5 5 5 5 5 5 5 5 5 5 5 5 5 5 5 5 5 5 5 5 5 5 5 5 5 5 5 5 5 5 5 5 5 5 5 5 5 5 5 5 5 5 5 5 5 5 5 5 5 5 5 5 5 5 5 5 5 5 5 5 5 5 5 5 5 5 5 5 5 5 5 5 5 5 5 5 5 5 5 5 5 5 5 5 5 5 5 5 5 5 5 5 5 5 5 5 5 5 5 5 5 5 5 5 5 5 5 5 5 5 5 5 5 5 5 5 5 5 5 5 5 5 5 5 5 5 5 5 5 5 5 5 5 5 5 5 5 5 5 5 5 5 5 5 5 5 5 5 5 5 5 5 5 5 5 5 5 5 5 5 5 5 5 5 5 5 5 5 5 5 5 5 5 5 5 5 5 5 5 5 5 5 5 5 5 5 5 5 5 5 5 5 5 5 5 5 5 5 5 5 5 5 5 5 5 5 5 5 5 5 5 5 5 5 5 5 5 5 5 5 5 5 5 5 5 5 5 5 5 5 5 5 5 5 5 5 5 5 5 5 5 5 5 5 5 5 5 5 5 5 5 5 5 5 5 5 5 5 5 5 5 5 5 5 5 5 5 5 5 5 5 5 5 5 5 5 5 5 5 5 5 5 5 5 5 5 5 5 5 5 5 5 5 5 5 5 5 5 5 5 5 5 5 5 5 5 5 5 5 5 5 5 5 5 5 5 5 5 5 5 5 5 5 5 5 5 5 5 5 5 5 5 5 5 5 5 5 5 5 5 5 5 5 3 3 3 3 3 3 3 3 3 3 3 3 3 3 3 3 3 3 3 3 3 3 3 3 3 3 3 3 3 3 3 3 3 3 3 3 3 3 3 3 3 3 3 3 
        </DataArray>
      </Cells>
    </Piece>
  </UnstructuredGrid>
</VTKFile>
